LAMMPS data file generated by OpenBabel
23 atoms
43 bonds
160 angles
589 dihedrals
0 impropers
4 atom types
4 bond types
6 angle types
8 dihedral types
0 improper types
  -7.04210    4.72310 xlo xhi
  -7.04210    4.72310 ylo yhi
  -7.04210    4.72310 zlo zhi



Masses

1 107.868 # Ag
2 12.0107 # C
3 1.00794 # H
4 14.0067 # N


Atoms

1       1    0.00000    1.69390    3.66710   -0.62220 #  Ag
2       1    0.00000    0.86170    0.37410   -1.43360 #  Ag
3       1    0.00000   -0.10320    0.05950   -3.60500 #  Ag
4       1    0.00000    0.24550    2.31770   -5.96490 #  Ag
5       1    0.00000   -1.71430    1.77990   -3.70070 #  Ag
6       1    0.00000   -1.30070    0.66840   -1.83800 #  Ag
7       1    0.00000    0.01940    4.22310   -3.30190 #  Ag
8       1    0.00000    0.22730    1.97620   -2.69600 #  Ag
9       1    0.00000    1.70650    1.84970   -3.19970 #  Ag
10       1    0.00000    -1.37680    2.86330    -1.69470 #  Ag
11       1    0.00000    2.04660    0.64440    0.87510 #  Ag
12       1    0.00000    -0.47050    1.58630    -0.02160 #  Ag
13       2    0.00000    -4.45290    2.91500    0.22910 #   C
14       3    0.41000    -4.46480    3.99730    0.22550 #   H
15       2    0.00000    -3.26970    2.23220    0.50930 #   C
16       3    0.41000    -2.36700    2.78730    0.72490 #   H
17       2    0.00000    -3.26910    0.83310    0.50660 #   C
18       3    0.41000    -2.36160    0.28450    0.71900 #   H
19       4    0.00000    -4.41460    0.15310    0.23600 #   N
20       2    0.00000    -5.57950    0.80030    -0.03480 #   C
21       3    0.41000    -6.47430    0.23020    -0.24220 #   H
22       2    0.00000    -5.61870    2.19750    -0.04360 #   C
23       3    0.41000    -6.54210    2.71830    -0.25800 #   H


Bonds

1       4    4    6 # Ag:Ag
2       4    2    6 # Ag:Ag
3       4    3    6 # Ag:Ag
4       4    5    6 # Ag:Ag
5       4    1    6 # Ag:Ag
6       4    3    7 # Ag:Ag
7       4    2    7 # Ag:Ag
8       4    3    4 # Ag:Ag
9       4    4    5 # Ag:Ag
10      4    1    5 # Ag:Ag
11      4    1    2 # Ag:Ag
12      4    2    3 # Ag:Ag
13      4    7    8 # Ag:Ag
14      4    8    9 # Ag:Ag
15      4    9   10 # Ag:Ag
16      4   10   11 # Ag:Ag
17      4    7   11 # Ag:Ag
18      4    3   11 # Ag:Ag
19      4    3   10 # Ag:Ag
20      4    4   10 # Ag:Ag
21      4    4    9 # Ag:Ag
22      4    1    9 # Ag:Ag
23      4    1    7 # Ag:Ag
24      4    2    8 # Ag:Ag
25      4    7   12 # Ag:Ag
26      4    9   12 # Ag:Ag
27      4    8   12 # Ag:Ag
28      4   11   12 # Ag:Ag
29      4   10   12 # Ag:Ag
30      4    2   11 # Ag:Ag
31      4    1    8 # Ag:Ag
32      4    1    4 # Ag:Ag
33      1   13   14 #  C: C
34      1   14   15 #  C: C
35      2   14   19 #  C: H
36      3   18   15 #  N: C
37      2   15   20 #  C: H
38      3   18   17 #  N: C
39      1   16   17 #  C: C
40      2   17   21 #  C: H
41      1   13   16 #  C: C
42      2   16   22 #  C: H
43      2   13   23 #  C: H


Angles

1       6    6    1    5 # Ag:Ag:Ag
2       6    6    1    2 # Ag:Ag:Ag
3       6    9    1    6 # Ag:Ag:Ag
4       6    7    1    6 # Ag:Ag:Ag
5       6    8    1    6 # Ag:Ag:Ag
6       6    6    1    4 # Ag:Ag:Ag
7       6    5    1    2 # Ag:Ag:Ag
8       6    9    1    5 # Ag:Ag:Ag
9       6    7    1    5 # Ag:Ag:Ag
10      6    8    1    5 # Ag:Ag:Ag
11      6    5    1    4 # Ag:Ag:Ag
12      6    9    1    2 # Ag:Ag:Ag
13      6    7    1    2 # Ag:Ag:Ag
14      6    8    1    2 # Ag:Ag:Ag
15      6    4    1    2 # Ag:Ag:Ag
16      6    9    1    7 # Ag:Ag:Ag
17      6    9    1    8 # Ag:Ag:Ag
18      6    9    1    4 # Ag:Ag:Ag
19      6    8    1    7 # Ag:Ag:Ag
20      6    7    1    4 # Ag:Ag:Ag
21      6    8    1    4 # Ag:Ag:Ag
22      6    7    2    6 # Ag:Ag:Ag
23      6    6    2    1 # Ag:Ag:Ag
24      6    6    2    3 # Ag:Ag:Ag
25      6    8    2    6 # Ag:Ag:Ag
26      6   11    2    6 # Ag:Ag:Ag
27      6    7    2    1 # Ag:Ag:Ag
28      6    7    2    3 # Ag:Ag:Ag
29      6    8    2    7 # Ag:Ag:Ag
30      6   11    2    7 # Ag:Ag:Ag
31      6    3    2    1 # Ag:Ag:Ag
32      6    8    2    1 # Ag:Ag:Ag
33      6   11    2    1 # Ag:Ag:Ag
34      6    8    2    3 # Ag:Ag:Ag
35      6   11    2    3 # Ag:Ag:Ag
36      6   11    2    8 # Ag:Ag:Ag
37      6    7    3    6 # Ag:Ag:Ag
38      6    6    3    4 # Ag:Ag:Ag
39      6    6    3    2 # Ag:Ag:Ag
40      6   11    3    6 # Ag:Ag:Ag
41      6   10    3    6 # Ag:Ag:Ag
42      6    7    3    4 # Ag:Ag:Ag
43      6    7    3    2 # Ag:Ag:Ag
44      6   11    3    7 # Ag:Ag:Ag
45      6   10    3    7 # Ag:Ag:Ag
46      6    4    3    2 # Ag:Ag:Ag
47      6   11    3    4 # Ag:Ag:Ag
48      6   10    3    4 # Ag:Ag:Ag
49      6   11    3    2 # Ag:Ag:Ag
50      6   10    3    2 # Ag:Ag:Ag
51      6   11    3   10 # Ag:Ag:Ag
52      6    6    4    3 # Ag:Ag:Ag
53      6    6    4    5 # Ag:Ag:Ag
54      6   10    4    6 # Ag:Ag:Ag
55      6    9    4    6 # Ag:Ag:Ag
56      6    6    4    1 # Ag:Ag:Ag
57      6    5    4    3 # Ag:Ag:Ag
58      6   10    4    3 # Ag:Ag:Ag
59      6    9    4    3 # Ag:Ag:Ag
60      6    3    4    1 # Ag:Ag:Ag
61      6   10    4    5 # Ag:Ag:Ag
62      6    9    4    5 # Ag:Ag:Ag
63      6    5    4    1 # Ag:Ag:Ag
64      6   10    4    9 # Ag:Ag:Ag
65      6   10    4    1 # Ag:Ag:Ag
66      6    9    4    1 # Ag:Ag:Ag
67      6    6    5    4 # Ag:Ag:Ag
68      6    6    5    1 # Ag:Ag:Ag
69      6    4    5    1 # Ag:Ag:Ag
70      6    4    6    2 # Ag:Ag:Ag
71      6    4    6    3 # Ag:Ag:Ag
72      6    5    6    4 # Ag:Ag:Ag
73      6    4    6    1 # Ag:Ag:Ag
74      6    3    6    2 # Ag:Ag:Ag
75      6    5    6    2 # Ag:Ag:Ag
76      6    2    6    1 # Ag:Ag:Ag
77      6    5    6    3 # Ag:Ag:Ag
78      6    3    6    1 # Ag:Ag:Ag
79      6    5    6    1 # Ag:Ag:Ag
80      6    3    7    2 # Ag:Ag:Ag
81      6    8    7    3 # Ag:Ag:Ag
82      6   11    7    3 # Ag:Ag:Ag
83      6    3    7    1 # Ag:Ag:Ag
84      6   12    7    3 # Ag:Ag:Ag
85      6    8    7    2 # Ag:Ag:Ag
86      6   11    7    2 # Ag:Ag:Ag
87      6    2    7    1 # Ag:Ag:Ag
88      6   12    7    2 # Ag:Ag:Ag
89      6   11    7    8 # Ag:Ag:Ag
90      6    8    7    1 # Ag:Ag:Ag
91      6   12    7    8 # Ag:Ag:Ag
92      6   11    7    1 # Ag:Ag:Ag
93      6   12    7   11 # Ag:Ag:Ag
94      6   12    7    1 # Ag:Ag:Ag
95      6    9    8    7 # Ag:Ag:Ag
96      6    7    8    2 # Ag:Ag:Ag
97      6   12    8    7 # Ag:Ag:Ag
98      6    7    8    1 # Ag:Ag:Ag
99      6    9    8    2 # Ag:Ag:Ag
100     6   12    8    9 # Ag:Ag:Ag
101     6    9    8    1 # Ag:Ag:Ag
102     6   12    8    2 # Ag:Ag:Ag
103     6    2    8    1 # Ag:Ag:Ag
104     6   12    8    1 # Ag:Ag:Ag
105     6   10    9    8 # Ag:Ag:Ag
106     6    8    9    4 # Ag:Ag:Ag
107     6    8    9    1 # Ag:Ag:Ag
108     6   12    9    8 # Ag:Ag:Ag
109     6   10    9    4 # Ag:Ag:Ag
110     6   10    9    1 # Ag:Ag:Ag
111     6   12    9   10 # Ag:Ag:Ag
112     6    4    9    1 # Ag:Ag:Ag
113     6   12    9    4 # Ag:Ag:Ag
114     6   12    9    1 # Ag:Ag:Ag
115     6   11   10    9 # Ag:Ag:Ag
116     6    9   10    3 # Ag:Ag:Ag
117     6    9   10    4 # Ag:Ag:Ag
118     6   12   10    9 # Ag:Ag:Ag
119     6   11   10    3 # Ag:Ag:Ag
120     6   11   10    4 # Ag:Ag:Ag
121     6   12   10   11 # Ag:Ag:Ag
122     6    4   10    3 # Ag:Ag:Ag
123     6   12   10    3 # Ag:Ag:Ag
124     6   12   10    4 # Ag:Ag:Ag
125     6   10   11    7 # Ag:Ag:Ag
126     6   10   11    3 # Ag:Ag:Ag
127     6   12   11   10 # Ag:Ag:Ag
128     6   10   11    2 # Ag:Ag:Ag
129     6    7   11    3 # Ag:Ag:Ag
130     6   12   11    7 # Ag:Ag:Ag
131     6    7   11    2 # Ag:Ag:Ag
132     6   12   11    3 # Ag:Ag:Ag
133     6    3   11    2 # Ag:Ag:Ag
134     6   12   11    2 # Ag:Ag:Ag
135     6    9   12    7 # Ag:Ag:Ag
136     6    8   12    7 # Ag:Ag:Ag
137     6   11   12    7 # Ag:Ag:Ag
138     6   10   12    7 # Ag:Ag:Ag
139     6    9   12    8 # Ag:Ag:Ag
140     6   11   12    9 # Ag:Ag:Ag
141     6   10   12    9 # Ag:Ag:Ag
142     6   11   12    8 # Ag:Ag:Ag
143     6   10   12    8 # Ag:Ag:Ag
144     6   11   12   10 # Ag:Ag:Ag
145     1   16   13   14 #  C: C: C
146     2   14   13   23 #  C: C: H
147     2   16   13   23 #  C: C: H
148     1   15   14   13 #  C: C: C
149     2   13   14   19 #  C: C: H
150     2   15   14   19 #  C: C: H
151     4   18   15   14 #  N: C: C
152     2   14   15   20 #  C: C: H
153     5   18   15   20 #  N: C: H
154     1   17   16   13 #  C: C: C
155     2   17   16   22 #  C: C: H
156     2   13   16   22 #  C: C: H
157     4   18   17   16 #  N: C: C
158     5   18   17   21 #  N: C: H
159     2   16   17   21 #  C: C: H
160     3   17   18   15 #  C: N: C


Dihedrals

1       8    2    4    6    3 # Ag:Ag:Ag:Ag
2       8    5    4    6    3 # Ag:Ag:Ag:Ag
3       8    1    4    6    3 # Ag:Ag:Ag:Ag
4       8    2    4    6    5 # Ag:Ag:Ag:Ag
5       8    3    4    6    5 # Ag:Ag:Ag:Ag
6       8    1    4    6    5 # Ag:Ag:Ag:Ag
7       8    2    4    6   10 # Ag:Ag:Ag:Ag
8       8    3    4    6   10 # Ag:Ag:Ag:Ag
9       8    5    4    6   10 # Ag:Ag:Ag:Ag
10      8    1    4    6   10 # Ag:Ag:Ag:Ag
11      8    2    4    6    9 # Ag:Ag:Ag:Ag
12      8    3    4    6    9 # Ag:Ag:Ag:Ag
13      8    5    4    6    9 # Ag:Ag:Ag:Ag
14      8    1    4    6    9 # Ag:Ag:Ag:Ag
15      8    2    4    6    1 # Ag:Ag:Ag:Ag
16      8    3    4    6    1 # Ag:Ag:Ag:Ag
17      8    5    4    6    1 # Ag:Ag:Ag:Ag
18      8    4    2    6    7 # Ag:Ag:Ag:Ag
19      8    3    2    6    7 # Ag:Ag:Ag:Ag
20      8    5    2    6    7 # Ag:Ag:Ag:Ag
21      8    1    2    6    7 # Ag:Ag:Ag:Ag
22      8    4    2    6    1 # Ag:Ag:Ag:Ag
23      8    3    2    6    1 # Ag:Ag:Ag:Ag
24      8    5    2    6    1 # Ag:Ag:Ag:Ag
25      8    4    2    6    3 # Ag:Ag:Ag:Ag
26      8    5    2    6    3 # Ag:Ag:Ag:Ag
27      8    1    2    6    3 # Ag:Ag:Ag:Ag
28      8    4    2    6    8 # Ag:Ag:Ag:Ag
29      8    3    2    6    8 # Ag:Ag:Ag:Ag
30      8    5    2    6    8 # Ag:Ag:Ag:Ag
31      8    1    2    6    8 # Ag:Ag:Ag:Ag
32      8    4    2    6   11 # Ag:Ag:Ag:Ag
33      8    3    2    6   11 # Ag:Ag:Ag:Ag
34      8    5    2    6   11 # Ag:Ag:Ag:Ag
35      8    1    2    6   11 # Ag:Ag:Ag:Ag
36      8    4    3    6    7 # Ag:Ag:Ag:Ag
37      8    2    3    6    7 # Ag:Ag:Ag:Ag
38      8    5    3    6    7 # Ag:Ag:Ag:Ag
39      8    1    3    6    7 # Ag:Ag:Ag:Ag
40      8    2    3    6    4 # Ag:Ag:Ag:Ag
41      8    5    3    6    4 # Ag:Ag:Ag:Ag
42      8    1    3    6    4 # Ag:Ag:Ag:Ag
43      8    4    3    6    2 # Ag:Ag:Ag:Ag
44      8    5    3    6    2 # Ag:Ag:Ag:Ag
45      8    1    3    6    2 # Ag:Ag:Ag:Ag
46      8    4    3    6   11 # Ag:Ag:Ag:Ag
47      8    2    3    6   11 # Ag:Ag:Ag:Ag
48      8    5    3    6   11 # Ag:Ag:Ag:Ag
49      8    1    3    6   11 # Ag:Ag:Ag:Ag
50      8    4    3    6   10 # Ag:Ag:Ag:Ag
51      8    2    3    6   10 # Ag:Ag:Ag:Ag
52      8    5    3    6   10 # Ag:Ag:Ag:Ag
53      8    1    3    6   10 # Ag:Ag:Ag:Ag
54      8    2    5    6    4 # Ag:Ag:Ag:Ag
55      8    3    5    6    4 # Ag:Ag:Ag:Ag
56      8    1    5    6    4 # Ag:Ag:Ag:Ag
57      8    4    5    6    1 # Ag:Ag:Ag:Ag
58      8    2    5    6    1 # Ag:Ag:Ag:Ag
59      8    3    5    6    1 # Ag:Ag:Ag:Ag
60      8    4    1    6    5 # Ag:Ag:Ag:Ag
61      8    2    1    6    5 # Ag:Ag:Ag:Ag
62      8    3    1    6    5 # Ag:Ag:Ag:Ag
63      8    4    1    6    2 # Ag:Ag:Ag:Ag
64      8    3    1    6    2 # Ag:Ag:Ag:Ag
65      8    5    1    6    2 # Ag:Ag:Ag:Ag
66      8    4    1    6    9 # Ag:Ag:Ag:Ag
67      8    2    1    6    9 # Ag:Ag:Ag:Ag
68      8    3    1    6    9 # Ag:Ag:Ag:Ag
69      8    5    1    6    9 # Ag:Ag:Ag:Ag
70      8    4    1    6    7 # Ag:Ag:Ag:Ag
71      8    2    1    6    7 # Ag:Ag:Ag:Ag
72      8    3    1    6    7 # Ag:Ag:Ag:Ag
73      8    5    1    6    7 # Ag:Ag:Ag:Ag
74      8    4    1    6    8 # Ag:Ag:Ag:Ag
75      8    2    1    6    8 # Ag:Ag:Ag:Ag
76      8    3    1    6    8 # Ag:Ag:Ag:Ag
77      8    5    1    6    8 # Ag:Ag:Ag:Ag
78      8    2    1    6    4 # Ag:Ag:Ag:Ag
79      8    3    1    6    4 # Ag:Ag:Ag:Ag
80      8    5    1    6    4 # Ag:Ag:Ag:Ag
81      8    2    3    7    6 # Ag:Ag:Ag:Ag
82      8    8    3    7    6 # Ag:Ag:Ag:Ag
83      8   11    3    7    6 # Ag:Ag:Ag:Ag
84      8    1    3    7    6 # Ag:Ag:Ag:Ag
85      8   12    3    7    6 # Ag:Ag:Ag:Ag
86      8    2    3    7    4 # Ag:Ag:Ag:Ag
87      8    8    3    7    4 # Ag:Ag:Ag:Ag
88      8   11    3    7    4 # Ag:Ag:Ag:Ag
89      8    1    3    7    4 # Ag:Ag:Ag:Ag
90      8   12    3    7    4 # Ag:Ag:Ag:Ag
91      8    8    3    7    2 # Ag:Ag:Ag:Ag
92      8   11    3    7    2 # Ag:Ag:Ag:Ag
93      8    1    3    7    2 # Ag:Ag:Ag:Ag
94      8   12    3    7    2 # Ag:Ag:Ag:Ag
95      8    2    3    7   11 # Ag:Ag:Ag:Ag
96      8    8    3    7   11 # Ag:Ag:Ag:Ag
97      8    1    3    7   11 # Ag:Ag:Ag:Ag
98      8   12    3    7   11 # Ag:Ag:Ag:Ag
99      8    2    3    7   10 # Ag:Ag:Ag:Ag
100     8    8    3    7   10 # Ag:Ag:Ag:Ag
101     8   11    3    7   10 # Ag:Ag:Ag:Ag
102     8    1    3    7   10 # Ag:Ag:Ag:Ag
103     8   12    3    7   10 # Ag:Ag:Ag:Ag
104     8    3    2    7    6 # Ag:Ag:Ag:Ag
105     8    8    2    7    6 # Ag:Ag:Ag:Ag
106     8   11    2    7    6 # Ag:Ag:Ag:Ag
107     8    1    2    7    6 # Ag:Ag:Ag:Ag
108     8   12    2    7    6 # Ag:Ag:Ag:Ag
109     8    3    2    7    1 # Ag:Ag:Ag:Ag
110     8    8    2    7    1 # Ag:Ag:Ag:Ag
111     8   11    2    7    1 # Ag:Ag:Ag:Ag
112     8   12    2    7    1 # Ag:Ag:Ag:Ag
113     8    8    2    7    3 # Ag:Ag:Ag:Ag
114     8   11    2    7    3 # Ag:Ag:Ag:Ag
115     8    1    2    7    3 # Ag:Ag:Ag:Ag
116     8   12    2    7    3 # Ag:Ag:Ag:Ag
117     8    3    2    7    8 # Ag:Ag:Ag:Ag
118     8   11    2    7    8 # Ag:Ag:Ag:Ag
119     8    1    2    7    8 # Ag:Ag:Ag:Ag
120     8   12    2    7    8 # Ag:Ag:Ag:Ag
121     8    3    2    7   11 # Ag:Ag:Ag:Ag
122     8    8    2    7   11 # Ag:Ag:Ag:Ag
123     8    1    2    7   11 # Ag:Ag:Ag:Ag
124     8   12    2    7   11 # Ag:Ag:Ag:Ag
125     8    5    3    4    6 # Ag:Ag:Ag:Ag
126     8   10    3    4    6 # Ag:Ag:Ag:Ag
127     8    9    3    4    6 # Ag:Ag:Ag:Ag
128     8    1    3    4    6 # Ag:Ag:Ag:Ag
129     8    6    3    4    7 # Ag:Ag:Ag:Ag
130     8    5    3    4    7 # Ag:Ag:Ag:Ag
131     8   10    3    4    7 # Ag:Ag:Ag:Ag
132     8    9    3    4    7 # Ag:Ag:Ag:Ag
133     8    1    3    4    7 # Ag:Ag:Ag:Ag
134     8    6    3    4    2 # Ag:Ag:Ag:Ag
135     8    5    3    4    2 # Ag:Ag:Ag:Ag
136     8   10    3    4    2 # Ag:Ag:Ag:Ag
137     8    9    3    4    2 # Ag:Ag:Ag:Ag
138     8    1    3    4    2 # Ag:Ag:Ag:Ag
139     8    6    3    4   11 # Ag:Ag:Ag:Ag
140     8    5    3    4   11 # Ag:Ag:Ag:Ag
141     8   10    3    4   11 # Ag:Ag:Ag:Ag
142     8    9    3    4   11 # Ag:Ag:Ag:Ag
143     8    1    3    4   11 # Ag:Ag:Ag:Ag
144     8    6    3    4   10 # Ag:Ag:Ag:Ag
145     8    5    3    4   10 # Ag:Ag:Ag:Ag
146     8    9    3    4   10 # Ag:Ag:Ag:Ag
147     8    1    3    4   10 # Ag:Ag:Ag:Ag
148     8    1    4    5    6 # Ag:Ag:Ag:Ag
149     8    6    4    5    3 # Ag:Ag:Ag:Ag
150     8    1    4    5    3 # Ag:Ag:Ag:Ag
151     8    6    4    5   10 # Ag:Ag:Ag:Ag
152     8    1    4    5   10 # Ag:Ag:Ag:Ag
153     8    6    4    5    9 # Ag:Ag:Ag:Ag
154     8    1    4    5    9 # Ag:Ag:Ag:Ag
155     8    6    4    5    1 # Ag:Ag:Ag:Ag
156     8    4    1    5    6 # Ag:Ag:Ag:Ag
157     8    6    1    5    2 # Ag:Ag:Ag:Ag
158     8    4    1    5    2 # Ag:Ag:Ag:Ag
159     8    6    1    5    9 # Ag:Ag:Ag:Ag
160     8    4    1    5    9 # Ag:Ag:Ag:Ag
161     8    6    1    5    7 # Ag:Ag:Ag:Ag
162     8    4    1    5    7 # Ag:Ag:Ag:Ag
163     8    6    1    5    8 # Ag:Ag:Ag:Ag
164     8    4    1    5    8 # Ag:Ag:Ag:Ag
165     8    6    1    5    4 # Ag:Ag:Ag:Ag
166     8    7    1    2    6 # Ag:Ag:Ag:Ag
167     8    3    1    2    6 # Ag:Ag:Ag:Ag
168     8    8    1    2    6 # Ag:Ag:Ag:Ag
169     8   11    1    2    6 # Ag:Ag:Ag:Ag
170     8    6    1    2    5 # Ag:Ag:Ag:Ag
171     8    7    1    2    5 # Ag:Ag:Ag:Ag
172     8    3    1    2    5 # Ag:Ag:Ag:Ag
173     8    8    1    2    5 # Ag:Ag:Ag:Ag
174     8   11    1    2    5 # Ag:Ag:Ag:Ag
175     8    6    1    2    9 # Ag:Ag:Ag:Ag
176     8    7    1    2    9 # Ag:Ag:Ag:Ag
177     8    3    1    2    9 # Ag:Ag:Ag:Ag
178     8    8    1    2    9 # Ag:Ag:Ag:Ag
179     8   11    1    2    9 # Ag:Ag:Ag:Ag
180     8    6    1    2    7 # Ag:Ag:Ag:Ag
181     8    3    1    2    7 # Ag:Ag:Ag:Ag
182     8    8    1    2    7 # Ag:Ag:Ag:Ag
183     8   11    1    2    7 # Ag:Ag:Ag:Ag
184     8    6    1    2    8 # Ag:Ag:Ag:Ag
185     8    7    1    2    8 # Ag:Ag:Ag:Ag
186     8    3    1    2    8 # Ag:Ag:Ag:Ag
187     8   11    1    2    8 # Ag:Ag:Ag:Ag
188     8    6    1    2    4 # Ag:Ag:Ag:Ag
189     8    7    1    2    4 # Ag:Ag:Ag:Ag
190     8    3    1    2    4 # Ag:Ag:Ag:Ag
191     8    8    1    2    4 # Ag:Ag:Ag:Ag
192     8   11    1    2    4 # Ag:Ag:Ag:Ag
193     8    7    2    3    6 # Ag:Ag:Ag:Ag
194     8    4    2    3    6 # Ag:Ag:Ag:Ag
195     8   11    2    3    6 # Ag:Ag:Ag:Ag
196     8   10    2    3    6 # Ag:Ag:Ag:Ag
197     8    6    2    3    7 # Ag:Ag:Ag:Ag
198     8    4    2    3    7 # Ag:Ag:Ag:Ag
199     8   11    2    3    7 # Ag:Ag:Ag:Ag
200     8   10    2    3    7 # Ag:Ag:Ag:Ag
201     8    6    2    3    1 # Ag:Ag:Ag:Ag
202     8    7    2    3    1 # Ag:Ag:Ag:Ag
203     8    4    2    3    1 # Ag:Ag:Ag:Ag
204     8   11    2    3    1 # Ag:Ag:Ag:Ag
205     8   10    2    3    1 # Ag:Ag:Ag:Ag
206     8    6    2    3    8 # Ag:Ag:Ag:Ag
207     8    7    2    3    8 # Ag:Ag:Ag:Ag
208     8    4    2    3    8 # Ag:Ag:Ag:Ag
209     8   11    2    3    8 # Ag:Ag:Ag:Ag
210     8   10    2    3    8 # Ag:Ag:Ag:Ag
211     8    6    2    3   11 # Ag:Ag:Ag:Ag
212     8    7    2    3   11 # Ag:Ag:Ag:Ag
213     8    4    2    3   11 # Ag:Ag:Ag:Ag
214     8   10    2    3   11 # Ag:Ag:Ag:Ag
215     8    9    7    8    3 # Ag:Ag:Ag:Ag
216     8    2    7    8    3 # Ag:Ag:Ag:Ag
217     8   12    7    8    3 # Ag:Ag:Ag:Ag
218     8    1    7    8    3 # Ag:Ag:Ag:Ag
219     8    9    7    8    2 # Ag:Ag:Ag:Ag
220     8   12    7    8    2 # Ag:Ag:Ag:Ag
221     8    1    7    8    2 # Ag:Ag:Ag:Ag
222     8    9    7    8   11 # Ag:Ag:Ag:Ag
223     8    2    7    8   11 # Ag:Ag:Ag:Ag
224     8   12    7    8   11 # Ag:Ag:Ag:Ag
225     8    1    7    8   11 # Ag:Ag:Ag:Ag
226     8    9    7    8    1 # Ag:Ag:Ag:Ag
227     8    2    7    8    1 # Ag:Ag:Ag:Ag
228     8   12    7    8    1 # Ag:Ag:Ag:Ag
229     8    9    7    8   12 # Ag:Ag:Ag:Ag
230     8    2    7    8   12 # Ag:Ag:Ag:Ag
231     8    1    7    8   12 # Ag:Ag:Ag:Ag
232     8   10    8    9    7 # Ag:Ag:Ag:Ag
233     8    4    8    9    7 # Ag:Ag:Ag:Ag
234     8    1    8    9    7 # Ag:Ag:Ag:Ag
235     8   12    8    9    7 # Ag:Ag:Ag:Ag
236     8   10    8    9    2 # Ag:Ag:Ag:Ag
237     8    4    8    9    2 # Ag:Ag:Ag:Ag
238     8    1    8    9    2 # Ag:Ag:Ag:Ag
239     8   12    8    9    2 # Ag:Ag:Ag:Ag
240     8   10    8    9   12 # Ag:Ag:Ag:Ag
241     8    4    8    9   12 # Ag:Ag:Ag:Ag
242     8    1    8    9   12 # Ag:Ag:Ag:Ag
243     8   10    8    9    1 # Ag:Ag:Ag:Ag
244     8    4    8    9    1 # Ag:Ag:Ag:Ag
245     8   12    8    9    1 # Ag:Ag:Ag:Ag
246     8   11    9   10    8 # Ag:Ag:Ag:Ag
247     8    3    9   10    8 # Ag:Ag:Ag:Ag
248     8    4    9   10    8 # Ag:Ag:Ag:Ag
249     8   12    9   10    8 # Ag:Ag:Ag:Ag
250     8   11    9   10    4 # Ag:Ag:Ag:Ag
251     8    3    9   10    4 # Ag:Ag:Ag:Ag
252     8   12    9   10    4 # Ag:Ag:Ag:Ag
253     8   11    9   10    1 # Ag:Ag:Ag:Ag
254     8    3    9   10    1 # Ag:Ag:Ag:Ag
255     8    4    9   10    1 # Ag:Ag:Ag:Ag
256     8   12    9   10    1 # Ag:Ag:Ag:Ag
257     8   11    9   10   12 # Ag:Ag:Ag:Ag
258     8    3    9   10   12 # Ag:Ag:Ag:Ag
259     8    4    9   10   12 # Ag:Ag:Ag:Ag
260     8    7   10   11    9 # Ag:Ag:Ag:Ag
261     8    3   10   11    9 # Ag:Ag:Ag:Ag
262     8   12   10   11    9 # Ag:Ag:Ag:Ag
263     8    2   10   11    9 # Ag:Ag:Ag:Ag
264     8    7   10   11    3 # Ag:Ag:Ag:Ag
265     8   12   10   11    3 # Ag:Ag:Ag:Ag
266     8    2   10   11    3 # Ag:Ag:Ag:Ag
267     8    7   10   11    4 # Ag:Ag:Ag:Ag
268     8    3   10   11    4 # Ag:Ag:Ag:Ag
269     8   12   10   11    4 # Ag:Ag:Ag:Ag
270     8    2   10   11    4 # Ag:Ag:Ag:Ag
271     8    7   10   11   12 # Ag:Ag:Ag:Ag
272     8    3   10   11   12 # Ag:Ag:Ag:Ag
273     8    2   10   11   12 # Ag:Ag:Ag:Ag
274     8   10    7   11    3 # Ag:Ag:Ag:Ag
275     8   12    7   11    3 # Ag:Ag:Ag:Ag
276     8    2    7   11    3 # Ag:Ag:Ag:Ag
277     8   10    7   11    2 # Ag:Ag:Ag:Ag
278     8    3    7   11    2 # Ag:Ag:Ag:Ag
279     8   12    7   11    2 # Ag:Ag:Ag:Ag
280     8   10    7   11    8 # Ag:Ag:Ag:Ag
281     8    3    7   11    8 # Ag:Ag:Ag:Ag
282     8   12    7   11    8 # Ag:Ag:Ag:Ag
283     8    2    7   11    8 # Ag:Ag:Ag:Ag
284     8   10    7   11    1 # Ag:Ag:Ag:Ag
285     8    3    7   11    1 # Ag:Ag:Ag:Ag
286     8   12    7   11    1 # Ag:Ag:Ag:Ag
287     8    2    7   11    1 # Ag:Ag:Ag:Ag
288     8   10    7   11   12 # Ag:Ag:Ag:Ag
289     8    3    7   11   12 # Ag:Ag:Ag:Ag
290     8    2    7   11   12 # Ag:Ag:Ag:Ag
291     8   10    3   11    6 # Ag:Ag:Ag:Ag
292     8    7    3   11    6 # Ag:Ag:Ag:Ag
293     8   12    3   11    6 # Ag:Ag:Ag:Ag
294     8    2    3   11    6 # Ag:Ag:Ag:Ag
295     8   10    3   11    7 # Ag:Ag:Ag:Ag
296     8   12    3   11    7 # Ag:Ag:Ag:Ag
297     8    2    3   11    7 # Ag:Ag:Ag:Ag
298     8   10    3   11    4 # Ag:Ag:Ag:Ag
299     8    7    3   11    4 # Ag:Ag:Ag:Ag
300     8   12    3   11    4 # Ag:Ag:Ag:Ag
301     8    2    3   11    4 # Ag:Ag:Ag:Ag
302     8   10    3   11    2 # Ag:Ag:Ag:Ag
303     8    7    3   11    2 # Ag:Ag:Ag:Ag
304     8   12    3   11    2 # Ag:Ag:Ag:Ag
305     8    7    3   11   10 # Ag:Ag:Ag:Ag
306     8   12    3   11   10 # Ag:Ag:Ag:Ag
307     8    2    3   11   10 # Ag:Ag:Ag:Ag
308     8    9    3   10    6 # Ag:Ag:Ag:Ag
309     8   11    3   10    6 # Ag:Ag:Ag:Ag
310     8    4    3   10    6 # Ag:Ag:Ag:Ag
311     8   12    3   10    6 # Ag:Ag:Ag:Ag
312     8    9    3   10    7 # Ag:Ag:Ag:Ag
313     8   11    3   10    7 # Ag:Ag:Ag:Ag
314     8    4    3   10    7 # Ag:Ag:Ag:Ag
315     8   12    3   10    7 # Ag:Ag:Ag:Ag
316     8    9    3   10    4 # Ag:Ag:Ag:Ag
317     8   11    3   10    4 # Ag:Ag:Ag:Ag
318     8   12    3   10    4 # Ag:Ag:Ag:Ag
319     8    9    3   10    2 # Ag:Ag:Ag:Ag
320     8   11    3   10    2 # Ag:Ag:Ag:Ag
321     8    4    3   10    2 # Ag:Ag:Ag:Ag
322     8   12    3   10    2 # Ag:Ag:Ag:Ag
323     8    9    3   10   11 # Ag:Ag:Ag:Ag
324     8    4    3   10   11 # Ag:Ag:Ag:Ag
325     8   12    3   10   11 # Ag:Ag:Ag:Ag
326     8    9    4   10    6 # Ag:Ag:Ag:Ag
327     8   11    4   10    6 # Ag:Ag:Ag:Ag
328     8    3    4   10    6 # Ag:Ag:Ag:Ag
329     8   12    4   10    6 # Ag:Ag:Ag:Ag
330     8    9    4   10    3 # Ag:Ag:Ag:Ag
331     8   11    4   10    3 # Ag:Ag:Ag:Ag
332     8   12    4   10    3 # Ag:Ag:Ag:Ag
333     8    9    4   10    5 # Ag:Ag:Ag:Ag
334     8   11    4   10    5 # Ag:Ag:Ag:Ag
335     8    3    4   10    5 # Ag:Ag:Ag:Ag
336     8   12    4   10    5 # Ag:Ag:Ag:Ag
337     8   11    4   10    9 # Ag:Ag:Ag:Ag
338     8    3    4   10    9 # Ag:Ag:Ag:Ag
339     8   12    4   10    9 # Ag:Ag:Ag:Ag
340     8    9    4   10    1 # Ag:Ag:Ag:Ag
341     8   11    4   10    1 # Ag:Ag:Ag:Ag
342     8    3    4   10    1 # Ag:Ag:Ag:Ag
343     8   12    4   10    1 # Ag:Ag:Ag:Ag
344     8    8    4    9    6 # Ag:Ag:Ag:Ag
345     8   10    4    9    6 # Ag:Ag:Ag:Ag
346     8    1    4    9    6 # Ag:Ag:Ag:Ag
347     8   12    4    9    6 # Ag:Ag:Ag:Ag
348     8    8    4    9    3 # Ag:Ag:Ag:Ag
349     8   10    4    9    3 # Ag:Ag:Ag:Ag
350     8    1    4    9    3 # Ag:Ag:Ag:Ag
351     8   12    4    9    3 # Ag:Ag:Ag:Ag
352     8    8    4    9    5 # Ag:Ag:Ag:Ag
353     8   10    4    9    5 # Ag:Ag:Ag:Ag
354     8    1    4    9    5 # Ag:Ag:Ag:Ag
355     8   12    4    9    5 # Ag:Ag:Ag:Ag
356     8    8    4    9   10 # Ag:Ag:Ag:Ag
357     8    1    4    9   10 # Ag:Ag:Ag:Ag
358     8   12    4    9   10 # Ag:Ag:Ag:Ag
359     8    8    4    9    1 # Ag:Ag:Ag:Ag
360     8   10    4    9    1 # Ag:Ag:Ag:Ag
361     8   12    4    9    1 # Ag:Ag:Ag:Ag
362     8    8    1    9    6 # Ag:Ag:Ag:Ag
363     8   10    1    9    6 # Ag:Ag:Ag:Ag
364     8    4    1    9    6 # Ag:Ag:Ag:Ag
365     8   12    1    9    6 # Ag:Ag:Ag:Ag
366     8    8    1    9    5 # Ag:Ag:Ag:Ag
367     8   10    1    9    5 # Ag:Ag:Ag:Ag
368     8    4    1    9    5 # Ag:Ag:Ag:Ag
369     8   12    1    9    5 # Ag:Ag:Ag:Ag
370     8    8    1    9    2 # Ag:Ag:Ag:Ag
371     8   10    1    9    2 # Ag:Ag:Ag:Ag
372     8    4    1    9    2 # Ag:Ag:Ag:Ag
373     8   12    1    9    2 # Ag:Ag:Ag:Ag
374     8    8    1    9    7 # Ag:Ag:Ag:Ag
375     8   10    1    9    7 # Ag:Ag:Ag:Ag
376     8    4    1    9    7 # Ag:Ag:Ag:Ag
377     8   12    1    9    7 # Ag:Ag:Ag:Ag
378     8   10    1    9    8 # Ag:Ag:Ag:Ag
379     8    4    1    9    8 # Ag:Ag:Ag:Ag
380     8   12    1    9    8 # Ag:Ag:Ag:Ag
381     8    8    1    9    4 # Ag:Ag:Ag:Ag
382     8   10    1    9    4 # Ag:Ag:Ag:Ag
383     8   12    1    9    4 # Ag:Ag:Ag:Ag
384     8    3    1    7    6 # Ag:Ag:Ag:Ag
385     8    2    1    7    6 # Ag:Ag:Ag:Ag
386     8    8    1    7    6 # Ag:Ag:Ag:Ag
387     8   11    1    7    6 # Ag:Ag:Ag:Ag
388     8   12    1    7    6 # Ag:Ag:Ag:Ag
389     8    3    1    7    5 # Ag:Ag:Ag:Ag
390     8    2    1    7    5 # Ag:Ag:Ag:Ag
391     8    8    1    7    5 # Ag:Ag:Ag:Ag
392     8   11    1    7    5 # Ag:Ag:Ag:Ag
393     8   12    1    7    5 # Ag:Ag:Ag:Ag
394     8    3    1    7    2 # Ag:Ag:Ag:Ag
395     8    8    1    7    2 # Ag:Ag:Ag:Ag
396     8   11    1    7    2 # Ag:Ag:Ag:Ag
397     8   12    1    7    2 # Ag:Ag:Ag:Ag
398     8    3    1    7    9 # Ag:Ag:Ag:Ag
399     8    2    1    7    9 # Ag:Ag:Ag:Ag
400     8    8    1    7    9 # Ag:Ag:Ag:Ag
401     8   11    1    7    9 # Ag:Ag:Ag:Ag
402     8   12    1    7    9 # Ag:Ag:Ag:Ag
403     8    3    1    7    8 # Ag:Ag:Ag:Ag
404     8    2    1    7    8 # Ag:Ag:Ag:Ag
405     8   11    1    7    8 # Ag:Ag:Ag:Ag
406     8   12    1    7    8 # Ag:Ag:Ag:Ag
407     8    3    1    7    4 # Ag:Ag:Ag:Ag
408     8    2    1    7    4 # Ag:Ag:Ag:Ag
409     8    8    1    7    4 # Ag:Ag:Ag:Ag
410     8   11    1    7    4 # Ag:Ag:Ag:Ag
411     8   12    1    7    4 # Ag:Ag:Ag:Ag
412     8    7    2    8    6 # Ag:Ag:Ag:Ag
413     8    9    2    8    6 # Ag:Ag:Ag:Ag
414     8   12    2    8    6 # Ag:Ag:Ag:Ag
415     8    1    2    8    6 # Ag:Ag:Ag:Ag
416     8    9    2    8    7 # Ag:Ag:Ag:Ag
417     8   12    2    8    7 # Ag:Ag:Ag:Ag
418     8    1    2    8    7 # Ag:Ag:Ag:Ag
419     8    7    2    8    1 # Ag:Ag:Ag:Ag
420     8    9    2    8    1 # Ag:Ag:Ag:Ag
421     8   12    2    8    1 # Ag:Ag:Ag:Ag
422     8    7    2    8    3 # Ag:Ag:Ag:Ag
423     8    9    2    8    3 # Ag:Ag:Ag:Ag
424     8   12    2    8    3 # Ag:Ag:Ag:Ag
425     8    1    2    8    3 # Ag:Ag:Ag:Ag
426     8    7    2    8   11 # Ag:Ag:Ag:Ag
427     8    9    2    8   11 # Ag:Ag:Ag:Ag
428     8   12    2    8   11 # Ag:Ag:Ag:Ag
429     8    1    2    8   11 # Ag:Ag:Ag:Ag
430     8    9    7   12    3 # Ag:Ag:Ag:Ag
431     8    8    7   12    3 # Ag:Ag:Ag:Ag
432     8   11    7   12    3 # Ag:Ag:Ag:Ag
433     8   10    7   12    3 # Ag:Ag:Ag:Ag
434     8    9    7   12    2 # Ag:Ag:Ag:Ag
435     8    8    7   12    2 # Ag:Ag:Ag:Ag
436     8   11    7   12    2 # Ag:Ag:Ag:Ag
437     8   10    7   12    2 # Ag:Ag:Ag:Ag
438     8    9    7   12    8 # Ag:Ag:Ag:Ag
439     8   11    7   12    8 # Ag:Ag:Ag:Ag
440     8   10    7   12    8 # Ag:Ag:Ag:Ag
441     8    9    7   12   11 # Ag:Ag:Ag:Ag
442     8    8    7   12   11 # Ag:Ag:Ag:Ag
443     8   10    7   12   11 # Ag:Ag:Ag:Ag
444     8    9    7   12    1 # Ag:Ag:Ag:Ag
445     8    8    7   12    1 # Ag:Ag:Ag:Ag
446     8   11    7   12    1 # Ag:Ag:Ag:Ag
447     8   10    7   12    1 # Ag:Ag:Ag:Ag
448     8    7    9   12    8 # Ag:Ag:Ag:Ag
449     8   11    9   12    8 # Ag:Ag:Ag:Ag
450     8   10    9   12    8 # Ag:Ag:Ag:Ag
451     8    7    9   12   10 # Ag:Ag:Ag:Ag
452     8    8    9   12   10 # Ag:Ag:Ag:Ag
453     8   11    9   12   10 # Ag:Ag:Ag:Ag
454     8    7    9   12    4 # Ag:Ag:Ag:Ag
455     8    8    9   12    4 # Ag:Ag:Ag:Ag
456     8   11    9   12    4 # Ag:Ag:Ag:Ag
457     8   10    9   12    4 # Ag:Ag:Ag:Ag
458     8    7    9   12    1 # Ag:Ag:Ag:Ag
459     8    8    9   12    1 # Ag:Ag:Ag:Ag
460     8   11    9   12    1 # Ag:Ag:Ag:Ag
461     8   10    9   12    1 # Ag:Ag:Ag:Ag
462     8    9    8   12    7 # Ag:Ag:Ag:Ag
463     8   11    8   12    7 # Ag:Ag:Ag:Ag
464     8   10    8   12    7 # Ag:Ag:Ag:Ag
465     8    7    8   12    9 # Ag:Ag:Ag:Ag
466     8   11    8   12    9 # Ag:Ag:Ag:Ag